[Molden Format]
[Molpro variables]
NUMVAR=                     65.0000000000000000
EV=                      0.0367493088676916
KELVIN=                      0.0000031668288611
KJOULE=                      0.0003808798324129
KJOULE/MOL=                      0.0003808798324129
KCAL=                      0.0015936011178156
KCAL/MOL=                      0.0015936011178156
CM=                      0.0000045563352673
CM-1=                      0.0000045563352673
HZ=                      0.0000000000000002
HERTZ=                      0.0000000000000002
ANG=                      1.8897259885789233
ANGSTROM=                      1.8897259885789233
TOEV=                     27.2113961000000018
TOK=                 315773.2999999999880000
TOKELVIN=                 315773.2999999999880000
TOCM=                 219474.6306700000130000
TOHERTZ=       6579683899900000.0000000000000000
TOHZ=       6579683899900000.0000000000000000
TOKJ=                   2625.5000000000000000
TOKJOULE=                   2625.5000000000000000
TOKCAL=                    627.5095999999999780
TOA=                      0.5291772490000000
TOANG=                      0.5291772490000000
TODEBYE=                      2.5415800000000002
PI=                      3.1415926535897931
ORBITAL=                   2100.1999999999998200
INTDONE=TRUE
SCFDONE=TRUE
GRADONE=FALSE
VERSION=                   2000.0000000000000000
NPROC_SMP=                      1.0000000000000000
NPROC_MPP=                      1.0000000000000000
RNN=                      1.0940000000000001
BASIS=AVTZ
ENERGY=                   -108.9853765283492490
DMX=                      0.0000000000000000
DMY=                      0.0000000000000000
DMZ=                      0.0000000000000000
ITERATIONS=                      8.0000000000000000
DIRECT=FALSE
INTYP=INTS
BASINP=                    600.0000000000000000
GEOMTYP=ZMAT
GRADMETHOD=TRUE
PGROUP=D2h
ENUC=                     23.7017232184643483
NELEC=                     14.0000000000000000
SPIN=                      0.0000000000000000
SEIG_MIN=                      0.0000691087054909
GRADTYP=ALASKA
STATUS=                      1.0000000000000000
PROGRAM=RHF-SCF
CPUSTEP=                      0.1200000000000001
SYSSTEP=                      0.1900000000000000
WALLSTEP=                      0.3000000000000000
CPUTOT=                      3.4900000000000002
SYSTOT=                      0.6000000000000000
WALLTOT=                      4.1500000000000004
LASTSPIN=                      0.0000000000000000
LASTNELEC=                     14.0000000000000000
LASTSYM=                      1.0000000000000000
LASTORB=RHF
GRADEXFAC=TRUE
FOCKDONE=TRUE
[Atoms] Angs
N     1    7         0.0000000000        0.0000000000       -0.5470000000
N     2    7         0.0000000000        0.0000000000        0.5470000000
[GTO]
  1 0
 s   10 1.00
  0.1142000000E+05  0.5229996559E-03
  0.1712000000E+04  0.4044997339E-02
  0.3893000000E+03  0.2077498633E-01
  0.1100000000E+03  0.8072694689E-01
  0.3557000000E+02  0.2330738467E+00
  0.1254000000E+02  0.4335007148E+00
  0.4644000000E+01  0.3474717714E+00
  0.1293000000E+01  0.4126197285E-01
  0.5118000000E+00 -0.8507994403E-02
  0.1787000000E+00  0.2383998432E-02
 s   10 1.00
  0.1142000000E+05 -0.1149999544E-03
  0.1712000000E+04 -0.8949996452E-03
  0.3893000000E+03 -0.4623998167E-02
  0.1100000000E+03 -0.1852799265E-01
  0.3557000000E+02 -0.5733897727E-01
  0.1254000000E+02 -0.1320759476E+00
  0.4644000000E+01 -0.1725099316E+00
  0.1293000000E+01  0.1518139398E+00
  0.5118000000E+00  0.5999437621E+00
  0.1787000000E+00  0.3874618464E+00
 s   10 1.00
  0.1142000000E+05  0.0000000000E+00
  0.1712000000E+04  0.0000000000E+00
  0.3893000000E+03  0.0000000000E+00
  0.1100000000E+03  0.0000000000E+00
  0.3557000000E+02  0.0000000000E+00
  0.1254000000E+02  0.0000000000E+00
  0.4644000000E+01  0.0000000000E+00
  0.1293000000E+01  0.1000000000E+01
  0.5118000000E+00  0.0000000000E+00
  0.1787000000E+00  0.0000000000E+00
 s   10 1.00
  0.1142000000E+05  0.0000000000E+00
  0.1712000000E+04  0.0000000000E+00
  0.3893000000E+03  0.0000000000E+00
  0.1100000000E+03  0.0000000000E+00
  0.3557000000E+02  0.0000000000E+00
  0.1254000000E+02  0.0000000000E+00
  0.4644000000E+01  0.0000000000E+00
  0.1293000000E+01  0.0000000000E+00
  0.5118000000E+00  0.0000000000E+00
  0.1787000000E+00  0.1000000000E+01
 s    1 1.00
  0.5760000000E-01  0.1000000000E+01
 p    5 1.00
  0.2663000000E+02  0.1467000345E-01
  0.5948000000E+01  0.9176402155E-01
  0.1742000000E+01  0.2986830701E+00
  0.5550000000E+00  0.4984871171E+00
  0.1725000000E+00  0.3370230791E+00
 p    5 1.00
  0.2663000000E+02  0.0000000000E+00
  0.5948000000E+01  0.0000000000E+00
  0.1742000000E+01  0.0000000000E+00
  0.5550000000E+00  0.1000000000E+01
  0.1725000000E+00  0.0000000000E+00
 p    5 1.00
  0.2663000000E+02  0.0000000000E+00
  0.5948000000E+01  0.0000000000E+00
  0.1742000000E+01  0.0000000000E+00
  0.5550000000E+00  0.0000000000E+00
  0.1725000000E+00  0.1000000000E+01
 p    1 1.00
  0.4910000000E-01  0.1000000000E+01
 d    1 1.00
  0.1654000000E+01  0.1000000000E+01
 d    1 1.00
  0.4690000000E+00  0.1000000000E+01
 d    1 1.00
  0.1510000000E+00  0.1000000000E+01
 f    1 1.00
  0.1093000000E+01  0.1000000000E+01
 f    1 1.00
  0.3640000000E+00  0.1000000000E+01

  2 0
 s   10 1.00
  0.1142000000E+05  0.5229996559E-03
  0.1712000000E+04  0.4044997339E-02
  0.3893000000E+03  0.2077498633E-01
  0.1100000000E+03  0.8072694689E-01
  0.3557000000E+02  0.2330738467E+00
  0.1254000000E+02  0.4335007148E+00
  0.4644000000E+01  0.3474717714E+00
  0.1293000000E+01  0.4126197285E-01
  0.5118000000E+00 -0.8507994403E-02
  0.1787000000E+00  0.2383998432E-02
 s   10 1.00
  0.1142000000E+05 -0.1149999544E-03
  0.1712000000E+04 -0.8949996452E-03
  0.3893000000E+03 -0.4623998167E-02
  0.1100000000E+03 -0.1852799265E-01
  0.3557000000E+02 -0.5733897727E-01
  0.1254000000E+02 -0.1320759476E+00
  0.4644000000E+01 -0.1725099316E+00
  0.1293000000E+01  0.1518139398E+00
  0.5118000000E+00  0.5999437621E+00
  0.1787000000E+00  0.3874618464E+00
 s   10 1.00
  0.1142000000E+05  0.0000000000E+00
  0.1712000000E+04  0.0000000000E+00
  0.3893000000E+03  0.0000000000E+00
  0.1100000000E+03  0.0000000000E+00
  0.3557000000E+02  0.0000000000E+00
  0.1254000000E+02  0.0000000000E+00
  0.4644000000E+01  0.0000000000E+00
  0.1293000000E+01  0.1000000000E+01
  0.5118000000E+00  0.0000000000E+00
  0.1787000000E+00  0.0000000000E+00
 s   10 1.00
  0.1142000000E+05  0.0000000000E+00
  0.1712000000E+04  0.0000000000E+00
  0.3893000000E+03  0.0000000000E+00
  0.1100000000E+03  0.0000000000E+00
  0.3557000000E+02  0.0000000000E+00
  0.1254000000E+02  0.0000000000E+00
  0.4644000000E+01  0.0000000000E+00
  0.1293000000E+01  0.0000000000E+00
  0.5118000000E+00  0.0000000000E+00
  0.1787000000E+00  0.1000000000E+01
 s    1 1.00
  0.5760000000E-01  0.1000000000E+01
 p    5 1.00
  0.2663000000E+02  0.1467000345E-01
  0.5948000000E+01  0.9176402155E-01
  0.1742000000E+01  0.2986830701E+00
  0.5550000000E+00  0.4984871171E+00
  0.1725000000E+00  0.3370230791E+00
 p    5 1.00
  0.2663000000E+02  0.0000000000E+00
  0.5948000000E+01  0.0000000000E+00
  0.1742000000E+01  0.0000000000E+00
  0.5550000000E+00  0.1000000000E+01
  0.1725000000E+00  0.0000000000E+00
 p    5 1.00
  0.2663000000E+02  0.0000000000E+00
  0.5948000000E+01  0.0000000000E+00
  0.1742000000E+01  0.0000000000E+00
  0.5550000000E+00  0.0000000000E+00
  0.1725000000E+00  0.1000000000E+01
 p    1 1.00
  0.4910000000E-01  0.1000000000E+01
 d    1 1.00
  0.1654000000E+01  0.1000000000E+01
 d    1 1.00
  0.4690000000E+00  0.1000000000E+01
 d    1 1.00
  0.1510000000E+00  0.1000000000E+01
 f    1 1.00
  0.1093000000E+01  0.1000000000E+01
 f    1 1.00
  0.3640000000E+00  0.1000000000E+01


[MO]
 Ene=     -15.6842
 Spin= Alpha
 Occup=   2.000000
   1   0.70684909309
   2   0.00098388263
   3   0.00087150876
   4  -0.00057831021
   5  -0.00026899654
   6   0.00000000000
   7   0.00000000000
   8   0.00510880245
   9   0.00000000000
  10   0.00000000000
  11  -0.00287793241
  12   0.00000000000
  13   0.00000000000
  14  -0.00169538463
  15   0.00000000000
  16   0.00000000000
  17   0.00013248533
  18  -0.00005114326
  19  -0.00005114326
  20   0.00010228652
  21   0.00000000000
  22   0.00000000000
  23   0.00000000000
  24   0.00006042936
  25   0.00006042936
  26  -0.00012085873
  27   0.00000000000
  28   0.00000000000
  29   0.00000000000
  30  -0.00002458761
  31  -0.00002458761
  32   0.00004917522
  33   0.00000000000
  34   0.00000000000
  35   0.00000000000
  36   0.00000000000
  37   0.00000000000
  38  -0.00000243206
  39   0.00000000000
  40   0.00000000000
  41   0.00001824047
  42   0.00000000000
  43   0.00000000000
  44   0.00001824047
  45   0.00000000000
  46   0.00000000000
  47   0.00000000000
  48  -0.00000455690
  49   0.00000000000
  50   0.00000000000
  51   0.00003417672
  52   0.00000000000
  53   0.00000000000
  54   0.00003417672
  55   0.00000000000
  56   0.70684909309
  57   0.00098388263
  58   0.00087150876
  59  -0.00057831021
  60  -0.00026899654
  61   0.00000000000
  62   0.00000000000
  63  -0.00510880245
  64   0.00000000000
  65   0.00000000000
  66   0.00287793241
  67   0.00000000000
  68   0.00000000000
  69   0.00169538463
  70   0.00000000000
  71   0.00000000000
  72  -0.00013248533
  73  -0.00005114326
  74  -0.00005114326
  75   0.00010228652
  76   0.00000000000
  77   0.00000000000
  78   0.00000000000
  79   0.00006042936
  80   0.00006042936
  81  -0.00012085873
  82   0.00000000000
  83   0.00000000000
  84   0.00000000000
  85  -0.00002458761
  86  -0.00002458761
  87   0.00004917522
  88   0.00000000000
  89   0.00000000000
  90   0.00000000000
  91   0.00000000000
  92   0.00000000000
  93   0.00000243206
  94   0.00000000000
  95   0.00000000000
  96  -0.00001824047
  97   0.00000000000
  98   0.00000000000
  99  -0.00001824047
 100   0.00000000000
 101   0.00000000000
 102   0.00000000000
 103   0.00000455690
 104   0.00000000000
 105   0.00000000000
 106  -0.00003417672
 107   0.00000000000
 108   0.00000000000
 109  -0.00003417672
 110   0.00000000000
 Ene=     -15.6806
 Spin= Alpha
 Occup=   2.000000
   1   0.70670836141
   2  -0.00102907304
   3   0.00054841865
   4   0.02043454278
   5   0.00412649343
   6   0.00000000000
   7   0.00000000000
   8   0.00311469892
   9   0.00000000000
  10   0.00000000000
  11  -0.00060098296
  12   0.00000000000
  13   0.00000000000
  14   0.00789390213
  15   0.00000000000
  16   0.00000000000
  17   0.00072401364
  18  -0.00006685382
  19  -0.00006685382
  20   0.00013370764
  21   0.00000000000
  22   0.00000000000
  23   0.00000000000
  24  -0.00008636485
  25  -0.00008636485
  26   0.00017272969
  27   0.00000000000
  28   0.00000000000
  29   0.00000000000
  30  -0.00013536129
  31  -0.00013536129
  32   0.00027072259
  33   0.00000000000
  34   0.00000000000
  35   0.00000000000
  36   0.00000000000
  37   0.00000000000
  38   0.00000863924
  39   0.00000000000
  40   0.00000000000
  41  -0.00006479430
  42   0.00000000000
  43   0.00000000000
  44  -0.00006479430
  45   0.00000000000
  46   0.00000000000
  47   0.00000000000
  48   0.00000021312
  49   0.00000000000
  50   0.00000000000
  51  -0.00000159841
  52   0.00000000000
  53   0.00000000000
  54  -0.00000159841
  55   0.00000000000
  56  -0.70670836141
  57   0.00102907304
  58  -0.00054841865
  59  -0.02043454278
  60  -0.00412649343
  61   0.00000000000
  62   0.00000000000
  63   0.00311469892
  64   0.00000000000
  65   0.00000000000
  66  -0.00060098296
  67   0.00000000000
  68   0.00000000000
  69   0.00789390213
  70   0.00000000000
  71   0.00000000000
  72   0.00072401364
  73   0.00006685382
  74   0.00006685382
  75  -0.00013370764
  76   0.00000000000
  77   0.00000000000
  78   0.00000000000
  79   0.00008636485
  80   0.00008636485
  81  -0.00017272969
  82   0.00000000000
  83   0.00000000000
  84   0.00000000000
  85   0.00013536129
  86   0.00013536129
  87  -0.00027072259
  88   0.00000000000
  89   0.00000000000
  90   0.00000000000
  91   0.00000000000
  92   0.00000000000
  93   0.00000863924
  94   0.00000000000
  95   0.00000000000
  96  -0.00006479430
  97   0.00000000000
  98   0.00000000000
  99  -0.00006479430
 100   0.00000000000
 101   0.00000000000
 102   0.00000000000
 103   0.00000021312
 104   0.00000000000
 105   0.00000000000
 106  -0.00000159841
 107   0.00000000000
 108   0.00000000000
 109  -0.00000159841
 110   0.00000000000
 Ene=      -1.4752
 Spin= Alpha
 Occup=   2.000000
   1  -0.01807135142
   2   0.63248448094
   3  -0.00341253934
   4  -0.13780349297
   5  -0.00672353638
   6   0.00000000000
   7   0.00000000000
   8   0.34534869035
   9   0.00000000000
  10   0.00000000000
  11  -0.03945529457
  12   0.00000000000
  13   0.00000000000
  14  -0.12513784626
  15   0.00000000000
  16   0.00000000000
  17  -0.01094645691
  18  -0.00197519605
  19  -0.00197519605
  20   0.00395039209
  21   0.00000000000
  22   0.00000000000
  23   0.00000000000
  24  -0.00145697383
  25  -0.00145697383
  26   0.00291394766
  27   0.00000000000
  28   0.00000000000
  29   0.00000000000
  30   0.00159927184
  31   0.00159927184
  32  -0.00319854368
  33   0.00000000000
  34   0.00000000000
  35   0.00000000000
  36   0.00000000000
  37   0.00000000000
  38   0.00012884886
  39   0.00000000000
  40   0.00000000000
  41  -0.00096636649
  42   0.00000000000
  43   0.00000000000
  44  -0.00096636649
  45   0.00000000000
  46   0.00000000000
  47   0.00000000000
  48  -0.00007054818
  49   0.00000000000
  50   0.00000000000
  51   0.00052911138
  52   0.00000000000
  53   0.00000000000
  54   0.00052911138
  55   0.00000000000
  56  -0.01807135142
  57   0.63248448094
  58  -0.00341253934
  59  -0.13780349297
  60  -0.00672353638
  61   0.00000000000
  62   0.00000000000
  63  -0.34534869035
  64   0.00000000000
  65   0.00000000000
  66   0.03945529457
  67   0.00000000000
  68   0.00000000000
  69   0.12513784626
  70   0.00000000000
  71   0.00000000000
  72   0.01094645691
  73  -0.00197519605
  74  -0.00197519605
  75   0.00395039209
  76   0.00000000000
  77   0.00000000000
  78   0.00000000000
  79  -0.00145697383
  80  -0.00145697383
  81   0.00291394766
  82   0.00000000000
  83   0.00000000000
  84   0.00000000000
  85   0.00159927184
  86   0.00159927184
  87  -0.00319854368
  88   0.00000000000
  89   0.00000000000
  90   0.00000000000
  91   0.00000000000
  92   0.00000000000
  93  -0.00012884886
  94   0.00000000000
  95   0.00000000000
  96   0.00096636649
  97   0.00000000000
  98   0.00000000000
  99   0.00096636649
 100   0.00000000000
 101   0.00000000000
 102   0.00000000000
 103   0.00007054818
 104   0.00000000000
 105   0.00000000000
 106  -0.00052911138
 107   0.00000000000
 108   0.00000000000
 109  -0.00052911138
 110   0.00000000000
 Ene=      -0.7786
 Spin= Alpha
 Occup=   2.000000
   1  -0.00436472700
   2  -0.65676788082
   3  -0.00011038756
   4  -0.21999336799
   5  -0.03851418504
   6   0.00000000000
   7   0.00000000000
   8   0.32288885666
   9   0.00000000000
  10   0.00000000000
  11  -0.02189358080
  12   0.00000000000
  13   0.00000000000
  14  -0.11404984219
  15   0.00000000000
  16   0.00000000000
  17  -0.00137225743
  18  -0.00030035263
  19  -0.00030035263
  20   0.00060070526
  21   0.00000000000
  22   0.00000000000
  23   0.00000000000
  24  -0.00012899865
  25  -0.00012899865
  26   0.00025799730
  27   0.00000000000
  28   0.00000000000
  29   0.00000000000
  30   0.00129421747
  31   0.00129421747
  32  -0.00258843493
  33   0.00000000000
  34   0.00000000000
  35   0.00000000000
  36   0.00000000000
  37   0.00000000000
  38  -0.00001809373
  39   0.00000000000
  40   0.00000000000
  41   0.00013570300
  42   0.00000000000
  43   0.00000000000
  44   0.00013570300
  45   0.00000000000
  46   0.00000000000
  47   0.00000000000
  48   0.00000493971
  49   0.00000000000
  50   0.00000000000
  51  -0.00003704781
  52   0.00000000000
  53   0.00000000000
  54  -0.00003704781
  55   0.00000000000
  56   0.00436472700
  57   0.65676788082
  58   0.00011038756
  59   0.21999336799
  60   0.03851418504
  61   0.00000000000
  62   0.00000000000
  63   0.32288885666
  64   0.00000000000
  65   0.00000000000
  66  -0.02189358080
  67   0.00000000000
  68   0.00000000000
  69  -0.11404984219
  70   0.00000000000
  71   0.00000000000
  72  -0.00137225743
  73   0.00030035263
  74   0.00030035263
  75  -0.00060070526
  76   0.00000000000
  77   0.00000000000
  78   0.00000000000
  79   0.00012899865
  80   0.00012899865
  81  -0.00025799730
  82   0.00000000000
  83   0.00000000000
  84   0.00000000000
  85  -0.00129421747
  86  -0.00129421747
  87   0.00258843493
  88   0.00000000000
  89   0.00000000000
  90   0.00000000000
  91   0.00000000000
  92   0.00000000000
  93  -0.00001809373
  94   0.00000000000
  95   0.00000000000
  96   0.00013570300
  97   0.00000000000
  98   0.00000000000
  99   0.00013570300
 100   0.00000000000
 101   0.00000000000
 102   0.00000000000
 103   0.00000493971
 104   0.00000000000
 105   0.00000000000
 106  -0.00003704781
 107   0.00000000000
 108   0.00000000000
 109  -0.00003704781
 110   0.00000000000
 Ene=      -0.6350
 Spin= Alpha
 Occup=   2.000000
   1  -0.00481407505
   2  -0.24122770378
   3   0.00182672025
   4  -0.14491628162
   5  -0.02789986026
   6   0.00000000000
   7   0.00000000000
   8   0.69816535158
   9   0.00000000000
  10   0.00000000000
  11  -0.04564828266
  12   0.00000000000
  13   0.00000000000
  14  -0.10289645468
  15   0.00000000000
  16   0.00000000000
  17  -0.00187426474
  18  -0.00180182387
  19  -0.00180182387
  20   0.00360364773
  21   0.00000000000
  22   0.00000000000
  23   0.00000000000
  24  -0.00117555373
  25  -0.00117555373
  26   0.00235110747
  27   0.00000000000
  28   0.00000000000
  29   0.00000000000
  30   0.00031848892
  31   0.00031848892
  32  -0.00063697784
  33   0.00000000000
  34   0.00000000000
  35   0.00000000000
  36   0.00000000000
  37   0.00000000000
  38   0.00009623186
  39   0.00000000000
  40   0.00000000000
  41  -0.00072173894
  42   0.00000000000
  43   0.00000000000
  44  -0.00072173894
  45   0.00000000000
  46   0.00000000000
  47   0.00000000000
  48  -0.00005706699
  49   0.00000000000
  50   0.00000000000
  51   0.00042800240
  52   0.00000000000
  53   0.00000000000
  54   0.00042800240
  55   0.00000000000
  56  -0.00481407505
  57  -0.24122770378
  58   0.00182672025
  59  -0.14491628162
  60  -0.02789986026
  61   0.00000000000
  62   0.00000000000
  63  -0.69816535158
  64   0.00000000000
  65   0.00000000000
  66   0.04564828266
  67   0.00000000000
  68   0.00000000000
  69   0.10289645468
  70   0.00000000000
  71   0.00000000000
  72   0.00187426474
  73  -0.00180182387
  74  -0.00180182387
  75   0.00360364773
  76   0.00000000000
  77   0.00000000000
  78   0.00000000000
  79  -0.00117555373
  80  -0.00117555373
  81   0.00235110747
  82   0.00000000000
  83   0.00000000000
  84   0.00000000000
  85   0.00031848892
  86   0.00031848892
  87  -0.00063697784
  88   0.00000000000
  89   0.00000000000
  90   0.00000000000
  91   0.00000000000
  92   0.00000000000
  93  -0.00009623186
  94   0.00000000000
  95   0.00000000000
  96   0.00072173894
  97   0.00000000000
  98   0.00000000000
  99   0.00072173894
 100   0.00000000000
 101   0.00000000000
 102   0.00000000000
 103   0.00005706699
 104   0.00000000000
 105   0.00000000000
 106  -0.00042800240
 107   0.00000000000
 108   0.00000000000
 109  -0.00042800240
 110   0.00000000000
 Ene=      -0.6161
 Spin= Alpha
 Occup=   2.000000
   1   0.00000000000
   2   0.00000000000
   3   0.00000000000
   4   0.00000000000
   5   0.00000000000
   6   0.00000000000
   7   0.62796375488
   8   0.00000000000
   9   0.00000000000
  10  -0.00701758971
  11   0.00000000000
  12   0.00000000000
  13  -0.04017305328
  14   0.00000000000
  15   0.00000000000
  16   0.00516968043
  17   0.00000000000
  18   0.00000000000
  19   0.00000000000
  20   0.00000000000
  21   0.00000000000
  22   0.00000000000
  23   0.02024982593
  24   0.00000000000
  25   0.00000000000
  26   0.00000000000
  27   0.00000000000
  28   0.00000000000
  29   0.03657077331
  30   0.00000000000
  31   0.00000000000
  32   0.00000000000
  33   0.00000000000
  34   0.00000000000
  35   0.00755661725
  36   0.00000000000
  37  -0.00008541539
  38   0.00000000000
  39   0.00000000000
  40  -0.00042707693
  41   0.00000000000
  42   0.00000000000
  43   0.00170830773
  44   0.00000000000
  45   0.00000000000
  46   0.00000000000
  47  -0.00001054759
  48   0.00000000000
  49   0.00000000000
  50  -0.00005273796
  51   0.00000000000
  52   0.00000000000
  53   0.00021095186
  54   0.00000000000
  55   0.00000000000
  56   0.00000000000
  57   0.00000000000
  58   0.00000000000
  59   0.00000000000
  60   0.00000000000
  61   0.00000000000
  62   0.62796375488
  63   0.00000000000
  64   0.00000000000
  65  -0.00701758971
  66   0.00000000000
  67   0.00000000000
  68  -0.04017305328
  69   0.00000000000
  70   0.00000000000
  71   0.00516968043
  72   0.00000000000
  73   0.00000000000
  74   0.00000000000
  75   0.00000000000
  76   0.00000000000
  77   0.00000000000
  78  -0.02024982593
  79   0.00000000000
  80   0.00000000000
  81   0.00000000000
  82   0.00000000000
  83   0.00000000000
  84  -0.03657077331
  85   0.00000000000
  86   0.00000000000
  87   0.00000000000
  88   0.00000000000
  89   0.00000000000
  90  -0.00755661725
  91   0.00000000000
  92  -0.00008541539
  93   0.00000000000
  94   0.00000000000
  95  -0.00042707693
  96   0.00000000000
  97   0.00000000000
  98   0.00170830773
  99   0.00000000000
 100   0.00000000000
 101   0.00000000000
 102  -0.00001054759
 103   0.00000000000
 104   0.00000000000
 105  -0.00005273796
 106   0.00000000000
 107   0.00000000000
 108   0.00021095186
 109   0.00000000000
 110   0.00000000000
 Ene=      -0.6161
 Spin= Alpha
 Occup=   2.000000
   1   0.00000000000
   2   0.00000000000
   3   0.00000000000
   4   0.00000000000
   5   0.00000000000
   6   0.62796375488
   7   0.00000000000
   8   0.00000000000
   9  -0.00701758971
  10   0.00000000000
  11   0.00000000000
  12  -0.04017305328
  13   0.00000000000
  14   0.00000000000
  15   0.00516968043
  16   0.00000000000
  17   0.00000000000
  18   0.00000000000
  19   0.00000000000
  20   0.00000000000
  21   0.00000000000
  22   0.02024982593
  23   0.00000000000
  24   0.00000000000
  25   0.00000000000
  26   0.00000000000
  27   0.00000000000
  28   0.03657077331
  29   0.00000000000
  30   0.00000000000
  31   0.00000000000
  32   0.00000000000
  33   0.00000000000
  34   0.00755661725
  35   0.00000000000
  36  -0.00008541539
  37   0.00000000000
  38   0.00000000000
  39  -0.00042707693
  40   0.00000000000
  41   0.00000000000
  42   0.00170830773
  43   0.00000000000
  44   0.00000000000
  45   0.00000000000
  46  -0.00001054759
  47   0.00000000000
  48   0.00000000000
  49  -0.00005273796
  50   0.00000000000
  51   0.00000000000
  52   0.00021095186
  53   0.00000000000
  54   0.00000000000
  55   0.00000000000
  56   0.00000000000
  57   0.00000000000
  58   0.00000000000
  59   0.00000000000
  60   0.00000000000
  61   0.62796375488
  62   0.00000000000
  63   0.00000000000
  64  -0.00701758971
  65   0.00000000000
  66   0.00000000000
  67  -0.04017305328
  68   0.00000000000
  69   0.00000000000
  70   0.00516968043
  71   0.00000000000
  72   0.00000000000
  73   0.00000000000
  74   0.00000000000
  75   0.00000000000
  76   0.00000000000
  77  -0.02024982593
  78   0.00000000000
  79   0.00000000000
  80   0.00000000000
  81   0.00000000000
  82   0.00000000000
  83  -0.03657077331
  84   0.00000000000
  85   0.00000000000
  86   0.00000000000
  87   0.00000000000
  88   0.00000000000
  89  -0.00755661725
  90   0.00000000000
  91  -0.00008541539
  92   0.00000000000
  93   0.00000000000
  94  -0.00042707693
  95   0.00000000000
  96   0.00000000000
  97   0.00170830773
  98   0.00000000000
  99   0.00000000000
 100   0.00000000000
 101  -0.00001054759
 102   0.00000000000
 103   0.00000000000
 104  -0.00005273796
 105   0.00000000000
 106   0.00000000000
 107   0.00021095186
 108   0.00000000000
 109   0.00000000000
 110   0.00000000000
 Ene=       0.0828
 Spin= Alpha
 Occup=   0.000000
   1   0.00479098002
   2   0.09734526613
   3  -0.00684057516
   4   4.21493869151
   5  13.41555895536
   6   0.00000000000
   7   0.00000000000
   8  -0.04883190104
   9   0.00000000000
  10   0.00000000000
  11   0.15821438873
  12   0.00000000000
  13   0.00000000000
  14   2.33314107114
  15   0.00000000000
  16   0.00000000000
  17   3.55821316894
  18   0.00000548003
  19   0.00000548003
  20  -0.00001096005
  21   0.00000000000
  22   0.00000000000
  23   0.00000000000
  24  -0.01046391284
  25  -0.01046391284
  26   0.02092782567
  27   0.00000000000
  28   0.00000000000
  29   0.00000000000
  30  -0.04722134546
  31  -0.04722134546
  32   0.09444269091
  33   0.00000000000
  34   0.00000000000
  35   0.00000000000
  36   0.00000000000
  37   0.00000000000
  38   0.00011952045
  39   0.00000000000
  40   0.00000000000
  41  -0.00089640337
  42   0.00000000000
  43   0.00000000000
  44  -0.00089640337
  45   0.00000000000
  46   0.00000000000
  47   0.00000000000
  48   0.00042245279
  49   0.00000000000
  50   0.00000000000
  51  -0.00316839592
  52   0.00000000000
  53   0.00000000000
  54  -0.00316839592
  55   0.00000000000
  56  -0.00479098002
  57  -0.09734526613
  58   0.00684057516
  59  -4.21493869151
  60 -13.41555895536
  61   0.00000000000
  62   0.00000000000
  63  -0.04883190104
  64   0.00000000000
  65   0.00000000000
  66   0.15821438873
  67   0.00000000000
  68   0.00000000000
  69   2.33314107114
  70   0.00000000000
  71   0.00000000000
  72   3.55821316894
  73  -0.00000548003
  74  -0.00000548003
  75   0.00001096005
  76   0.00000000000
  77   0.00000000000
  78   0.00000000000
  79   0.01046391284
  80   0.01046391284
  81  -0.02092782567
  82   0.00000000000
  83   0.00000000000
  84   0.00000000000
  85   0.04722134546
  86   0.04722134546
  87  -0.09444269091
  88   0.00000000000
  89   0.00000000000
  90   0.00000000000
  91   0.00000000000
  92   0.00000000000
  93   0.00011952045
  94   0.00000000000
  95   0.00000000000
  96  -0.00089640337
  97   0.00000000000
  98   0.00000000000
  99  -0.00089640337
 100   0.00000000000
 101   0.00000000000
 102   0.00000000000
 103   0.00042245279
 104   0.00000000000
 105   0.00000000000
 106  -0.00316839592
 107   0.00000000000
 108   0.00000000000
 109  -0.00316839592
 110   0.00000000000
 Ene=       0.1171
 Spin= Alpha
 Occup=   0.000000
   1  -0.00830859710
   2  -0.16321017031
   3  -0.02191796384
   4  -0.52505153771
   5   0.95796617226
   6   0.00000000000
   7   0.00000000000
   8   0.14527886811
   9   0.00000000000
  10   0.00000000000
  11  -0.06149786829
  12   0.00000000000
  13   0.00000000000
  14   0.34945876669
  15   0.00000000000
  16   0.00000000000
  17  -0.91800458056
  18   0.00051162503
  19   0.00051162503
  20  -0.00102325007
  21   0.00000000000
  22   0.00000000000
  23   0.00000000000
  24  -0.00482379781
  25  -0.00482379781
  26   0.00964759563
  27   0.00000000000
  28   0.00000000000
  29   0.00000000000
  30  -0.00671589316
  31  -0.00671589316
  32   0.01343178633
  33   0.00000000000
  34   0.00000000000
  35   0.00000000000
  36   0.00000000000
  37   0.00000000000
  38   0.00002411386
  39   0.00000000000
  40   0.00000000000
  41  -0.00018085395
  42   0.00000000000
  43   0.00000000000
  44  -0.00018085395
  45   0.00000000000
  46   0.00000000000
  47   0.00000000000
  48   0.00051178909
  49   0.00000000000
  50   0.00000000000
  51  -0.00383841815
  52   0.00000000000
  53   0.00000000000
  54  -0.00383841815
  55   0.00000000000
  56  -0.00830859710
  57  -0.16321017031
  58  -0.02191796384
  59  -0.52505153771
  60   0.95796617226
  61   0.00000000000
  62   0.00000000000
  63  -0.14527886811
  64   0.00000000000
  65   0.00000000000
  66   0.06149786829
  67   0.00000000000
  68   0.00000000000
  69  -0.34945876669
  70   0.00000000000
  71   0.00000000000
  72   0.91800458056
  73   0.00051162503
  74   0.00051162503
  75  -0.00102325007
  76   0.00000000000
  77   0.00000000000
  78   0.00000000000
  79  -0.00482379781
  80  -0.00482379781
  81   0.00964759563
  82   0.00000000000
  83   0.00000000000
  84   0.00000000000
  85  -0.00671589316
  86  -0.00671589316
  87   0.01343178633
  88   0.00000000000
  89   0.00000000000
  90   0.00000000000
  91   0.00000000000
  92   0.00000000000
  93  -0.00002411386
  94   0.00000000000
  95   0.00000000000
  96   0.00018085395
  97   0.00000000000
  98   0.00000000000
  99   0.00018085395
 100   0.00000000000
 101   0.00000000000
 102   0.00000000000
 103  -0.00051178909
 104   0.00000000000
 105   0.00000000000
 106   0.00383841815
 107   0.00000000000
 108   0.00000000000
 109   0.00383841815
 110   0.00000000000
 Ene=       0.1184
 Spin= Alpha
 Occup=   0.000000
   1   0.00000000000
   2   0.00000000000
   3   0.00000000000
   4   0.00000000000
   5   0.00000000000
   6   0.00000000000
   7   0.37307615454
   8   0.00000000000
   9   0.00000000000
  10   0.01792614336
  11   0.00000000000
  12   0.00000000000
  13   0.59609536790
  14   0.00000000000
  15   0.00000000000
  16   1.89087374136
  17   0.00000000000
  18   0.00000000000
  19   0.00000000000
  20   0.00000000000
  21   0.00000000000
  22   0.00000000000
  23  -0.00770517722
  24   0.00000000000
  25   0.00000000000
  26   0.00000000000
  27   0.00000000000
  28   0.00000000000
  29   0.00020189943
  30   0.00000000000
  31   0.00000000000
  32   0.00000000000
  33   0.00000000000
  34   0.00000000000
  35   0.30043188973
  36   0.00000000000
  37   0.00005303470
  38   0.00000000000
  39   0.00000000000
  40   0.00026517352
  41   0.00000000000
  42   0.00000000000
  43  -0.00106069407